 Gaussian 09, Revision A.02,
 Gaussian 09:  EM64L-G09RevA.02 11-Jun-2009

 ----------------------------------------------------------------------
 #p CacheSize=131072 upbe1pbe/gen freq scf(conver=6,qc) geom=checkpoint
  scrf(pcm,solvent=water) int(grid=ultrafine) pseudo=read
 ----------------------------------------------------------------------

 Optimization for TZVP of rufe in h2o
 ------------------------------------
 Redundant internal coordinates taken from checkpoint file:
 rufe_h2otz_opt_6f.chk
 Charge = -1 Multiplicity = 2

                         Standard orientation:
 ---------------------------------------------------------------------
 Center     Atomic      Atomic             Coordinates (Angstroms)
 Number     Number       Type             X           Y           Z
 ---------------------------------------------------------------------
      1          6           0       -0.605853    0.019992    0.656919
      2          7           0       -3.272107   -2.319391    1.927180
      3          7           0        0.553025    0.020303    0.687765
      4          7           0       -3.388165    2.143128    2.076172
      5         44           0        2.431302    0.002854    0.085727
      6          1           0        4.841121   -0.957105   -0.726673
      7         26           0       -2.412888    0.000886    0.046285
      8          1           0        4.519049    0.344560   -1.635541
      9          7           0        4.445251   -0.021947   -0.690666
     10          1           0        5.090995    0.528265   -0.131542
     11          7           0        2.998746   -1.339618    1.654132
     12          1           0        2.199723   -1.535031    2.250321
     13          7           0        1.823180    1.333560   -1.480798
     14          1           0        1.985585    0.966990   -2.414723
     15          7           0        1.919132   -1.657384   -1.168193
     16          1           0        2.168717   -2.560620   -0.775124
     17          7           0        2.892807    1.681445    1.333195
     18          1           0        3.520109    1.475409    2.105743
     19          6           0       -4.206915   -0.021112   -0.707973
     20          1           0        3.333752   -2.242028    1.327785
     21          6           0       -1.778824   -1.334903   -1.218944
     22          1           0        3.729059   -0.985772    2.265822
     23          6           0       -1.857931    1.445245   -1.133244
     24          1           0        0.822268    1.524819   -1.427547
     25          6           0       -3.027017    1.344743    1.313399
     26          1           0        2.284194    2.238973   -1.460254
     27          6           0       -2.954071   -1.453638    1.220832
     28          1           0        0.912326   -1.695560   -1.333752
     29          7           0       -5.273729   -0.033467   -1.167487
     30          1           0        2.357266   -1.630210   -2.084662
     31          7           0       -1.469959    2.291660   -1.829007
     32          1           0        3.314162    2.464506    0.841051
     33          7           0       -1.339015   -2.116221   -1.958771
     34          1           0        2.038966    2.037748    1.753116
 ---------------------------------------------------------------------

 SCF Done:  E(UPBE1PBE) =  -1058.31032934     a.u. after  111 cycles

 The electronic state is 2-A.
 Alpha  occ. eigenvalues --  -14.41394 -14.41351 -14.41339 -14.40740 -14.40690
 Alpha  occ. eigenvalues --  -14.37359 -14.33992 -14.33990 -14.33560 -14.33549
 Alpha  occ. eigenvalues --  -14.33538 -10.22748 -10.21720 -10.21674 -10.21157
 Alpha  occ. eigenvalues --  -10.21155 -10.21137  -3.68850  -3.00531  -2.33258
 Alpha  occ. eigenvalues --   -2.28987  -2.28714  -1.83910  -1.83522  -1.83390
 Alpha  occ. eigenvalues --   -0.93138  -0.92079  -0.92033  -0.92002  -0.91473
 Alpha  occ. eigenvalues --   -0.91374  -0.89516  -0.89329  -0.89021  -0.88804
 Alpha  occ. eigenvalues --   -0.88785  -0.53888  -0.53304  -0.52776  -0.52707
 Alpha  occ. eigenvalues --   -0.51882  -0.51234  -0.51070  -0.50802  -0.50351
 Alpha  occ. eigenvalues --   -0.50224  -0.49438  -0.48743  -0.43642  -0.43411
 Alpha  occ. eigenvalues --   -0.43056  -0.42887  -0.41774  -0.40447  -0.40053
 Alpha  occ. eigenvalues --   -0.39226  -0.38142  -0.37668  -0.36433  -0.35854
 Alpha  occ. eigenvalues --   -0.35624  -0.35341  -0.35049  -0.34897  -0.34540
 Alpha  occ. eigenvalues --   -0.34515  -0.33090  -0.33026  -0.32167  -0.31360
 Alpha  occ. eigenvalues --   -0.31329  -0.30984  -0.30923  -0.29797  -0.29619
 Alpha  occ. eigenvalues --   -0.29154  -0.27901  -0.27736  -0.19743  -0.19299
 Alpha  occ. eigenvalues --   -0.19207
 Alpha virt. eigenvalues --   -0.01838  -0.00947  -0.00252   0.00672   0.00976
 Alpha virt. eigenvalues --    0.01036   0.02360   0.03270   0.03870   0.04612
 Alpha virt. eigenvalues --    0.04859   0.05069   0.05122   0.05838   0.07220

  Beta  occ. eigenvalues --  -14.41394 -14.41352 -14.41340 -14.40740 -14.40691
  Beta  occ. eigenvalues --  -14.37298 -14.33957 -14.33952 -14.33513 -14.33502
  Beta  occ. eigenvalues --  -14.33493 -10.22856 -10.21808 -10.21764 -10.21251
  Beta  occ. eigenvalues --  -10.21249 -10.21231  -3.62809  -3.00435  -2.24169
  Beta  occ. eigenvalues --   -2.24017  -2.23338  -1.83765  -1.83377  -1.83354
  Beta  occ. eigenvalues --   -0.93126  -0.92078  -0.92027  -0.91964  -0.91453
  Beta  occ. eigenvalues --   -0.91374  -0.89485  -0.89298  -0.88976  -0.88755
  Beta  occ. eigenvalues --   -0.88735  -0.53873  -0.53304  -0.52768  -0.52705
  Beta  occ. eigenvalues --   -0.51878  -0.51234  -0.51068  -0.50802  -0.50348
  Beta  occ. eigenvalues --   -0.50223  -0.49438  -0.48738  -0.43702  -0.43483
  Beta  occ. eigenvalues --   -0.42742  -0.42647  -0.41758  -0.40131  -0.40038
  Beta  occ. eigenvalues --   -0.37815  -0.37463  -0.36385  -0.36110  -0.35477
  Beta  occ. eigenvalues --   -0.35167  -0.34985  -0.34936  -0.34779  -0.34277
  Beta  occ. eigenvalues --   -0.34161  -0.33028  -0.32662  -0.32083  -0.31287
  Beta  occ. eigenvalues --   -0.31172  -0.30795  -0.29943  -0.29711  -0.29050
  Beta  occ. eigenvalues --   -0.25679  -0.25487  -0.19696  -0.19132  -0.19077
  Beta virt. eigenvalues --   -0.09140  -0.01834   0.00525   0.00821   0.00961
  Beta virt. eigenvalues --    0.01135   0.01899   0.02465   0.03387   0.04613
  Beta virt. eigenvalues --    0.04916   0.05345   0.05426   0.05719   0.07070

 Mulliken atomic charges:
              1
     1  C    0.539546
     2  N   -0.243186
     3  N   -0.091647
     4  N   -0.243258
     5  Ru   0.207992
     6  H    0.269369
     7  Fe  -2.814837
     8  H    0.268485
     9  N   -0.499304
    10  H    0.270848
    11  N   -0.513498
    12  H    0.276379
    13  N   -0.486979
    14  H    0.264629
    15  N   -0.487884
    16  H    0.261966
    17  N   -0.514807
    18  H    0.268342
    19  C    0.186126
    20  H    0.266710
    21  C    0.225466
    22  H    0.268229
    23  C    0.200804
    24  H    0.243939
    25  C    0.158005
    26  H    0.262059
    27  C    0.153462
    28  H    0.240522
    29  N   -0.230947
    30  H    0.266235
    31  N   -0.254727
    32  H    0.268328
    33  N   -0.263621
    34  H    0.277256
 Sum of Mulliken atomic charges =  -1.00000

 Dipole moment (field-independent basis, Debye):
    X=             58.9578    Y=              0.0575    Z=              0.2985  Tot=             58.9585
 Quadrupole moment (field-independent basis, Debye-Ang):
   XX=           -188.3967   YY=           -165.5139   ZZ=           -159.4238
   XY=              0.1114   XZ=              7.7372   YZ=              0.0170

  Exact polarizability: 374.982  -0.754 269.996 -11.171  -0.128 260.732
 Approx polarizability: 358.157  -0.708 283.911 -14.315  -0.155 275.859

                     1                      2                      3
                     A                      A                      A
 Frequencies --    21.2876                42.9166                44.9488
 Red. masses --     4.2144                 9.0985                 8.1155
 Frc consts  --     0.0011                 0.0099                 0.0097
 IR Inten    --     2.5378                 5.6218                 4.3437

                     4                      5                      6
                     A                      A                      A
 Frequencies --    74.0627                75.6205                82.6367
 Red. masses --     3.6725                 4.7301                 1.1801
 Frc consts  --     0.0119                 0.0159                 0.0047
 IR Inten    --     4.4572                 2.4111                 2.6888

                     7                      8                      9
                     A                      A                      A
 Frequencies --    84.0813                88.1356                93.5434
 Red. masses --     8.7185                 9.2287                11.7582
 Frc consts  --     0.0363                 0.0422                 0.0606
 IR Inten    --     0.6911                 1.1017                 6.7162

                    10                     11                     12
                     A                      A                      A
 Frequencies --    94.4129                98.1015                98.2224
 Red. masses --     7.3672                 1.7175                 2.8245
 Frc consts  --     0.0387                 0.0097                 0.0161
 IR Inten    --    30.5041                17.0136                 6.5482

                    13                     14                     15
                     A                      A                      A
 Frequencies --   107.7438               113.5815               128.6981
 Red. masses --    10.8757                11.6777                 1.1082
 Frc consts  --     0.0744                 0.0888                 0.0108
 IR Inten    --    16.6987                 9.4997                 1.0613

                    16                     17                     18
                     A                      A                      A
 Frequencies --   156.4001               162.8025               178.4481
 Red. masses --     4.5652                 1.6823                 2.3346
 Frc consts  --     0.0658                 0.0263                 0.0438
 IR Inten    --     1.9050                 1.8310                 2.3329

                    19                     20                     21
                     A                      A                      A
 Frequencies --   181.2741               192.1530               196.4965
 Red. masses --     1.4228                 2.1577                 2.4321
 Frc consts  --     0.0275                 0.0469                 0.0553
 IR Inten    --     1.7590                 6.4098                 0.6901

                    22                     23                     24
                     A                      A                      A
 Frequencies --   199.3248               222.8428               228.7517
 Red. masses --     1.7291                 3.4208                 3.0656
 Frc consts  --     0.0405                 0.1001                 0.0945
 IR Inten    --     1.8922                26.9529                31.4684

                    25                     26                     27
                     A                      A                      A
 Frequencies --   245.7904               260.2234               288.0566
 Red. masses --     3.6969                 7.1776                 8.8875
 Frc consts  --     0.1316                 0.2864                 0.4345
 IR Inten    --    97.6787                 8.7897                28.7628

                    28                     29                     30
                     A                      A                      A
 Frequencies --   325.7363               348.5375               358.5563
 Red. masses --    12.3860                11.5445                13.0052
 Frc consts  --     0.7743                 0.8263                 0.9851
 IR Inten    --     0.0572                29.2990                 0.2780

                    31                     32                     33
                     A                      A                      A
 Frequencies --   359.5197               360.8330               372.5645
 Red. masses --    12.7357                10.8381                13.0211
 Frc consts  --     0.9699                 0.8314                 1.0649
 IR Inten    --     0.1214                15.8460                44.0578

                    34                     35                     36
                     A                      A                      A
 Frequencies --   375.0433               395.0536               404.2238
 Red. masses --    12.8062                 9.3151                 6.4325
 Frc consts  --     1.0613                 0.8565                 0.6193
 IR Inten    --    47.5254                27.9901                51.5848

                    37                     38                     39
                     A                      A                      A
 Frequencies --   406.9644               408.7410               419.1363
 Red. masses --     5.6233                 5.0967                 5.6799
 Frc consts  --     0.5487                 0.5017                 0.5879
 IR Inten    --    18.7110                 1.4979                15.6317

                    40                     41                     42
                     A                      A                      A
 Frequencies --   420.7941               426.9457               431.2624
 Red. masses --     5.1638                11.1655                 4.6285
 Frc consts  --     0.5387                 1.1991                 0.5072
 IR Inten    --     9.5974                25.0815                 0.7792

                    43                     44                     45
                     A                      A                      A
 Frequencies --   447.9425               453.3206               453.6199
 Red. masses --    12.0834                11.5041                11.3558
 Frc consts  --     1.4285                 1.3929                 1.3767
 IR Inten    --     4.4691                 0.8066                 7.4623

                    46                     47                     48
                     A                      A                      A
 Frequencies --   469.6507               480.1303               518.2980
 Red. masses --    10.7531                15.4770                13.9061
 Frc consts  --     1.3974                 2.1021                 2.2010
 IR Inten    --     0.1251                 6.7976                 1.0387

                    49                     50                     51
                     A                      A                      A
 Frequencies --   549.1128               588.7706               617.2781
 Red. masses --    17.7195                14.8504                 1.1226
 Frc consts  --     3.1479                 3.0331                 0.2520
 IR Inten    --     0.4871                 0.7181                 0.1540

                    52                     53                     54
                     A                      A                      A
 Frequencies --   653.2845               655.3554               703.4365
 Red. masses --     1.2067                 1.2010                 1.1797
 Frc consts  --     0.3034                 0.3039                 0.3439
 IR Inten    --     7.7306                 7.8063                 5.8412

                    55                     56                     57
                     A                      A                      A
 Frequencies --   711.0900               720.0132               743.1770
 Red. masses --     1.1719                 1.1889                 1.1451
 Frc consts  --     0.3491                 0.3631                 0.3726
 IR Inten    --    12.5404                 3.5049                17.5423

                    58                     59                     60
                     A                      A                      A
 Frequencies --   750.4250               759.9571               763.6389
 Red. masses --     1.2519                 1.2153                 1.2133
 Frc consts  --     0.4154                 0.4135                 0.4169
 IR Inten    --   128.7486                99.3316                90.5653

                    61                     62                     63
                     A                      A                      A
 Frequencies --  1294.4721              1307.9263              1317.0734
 Red. masses --     1.1682                 1.1636                 1.1642
 Frc consts  --     1.1534                 1.1728                 1.1899
 IR Inten    --    39.9762               125.1288               214.2226

                    64                     65                     66
                     A                      A                      A
 Frequencies --  1320.4849              1343.4347              1656.4204
 Red. masses --     1.1655                 1.1495                 1.0560
 Frc consts  --     1.1974                 1.2223                 1.7071
 IR Inten    --   192.4343                27.1651                27.6253

                    67                     68                     69
                     A                      A                      A
 Frequencies --  1662.9028              1664.8453              1665.5205
 Red. masses --     1.0589                 1.0575                 1.0578
 Frc consts  --     1.7252                 1.7269                 1.7289
 IR Inten    --     7.1918                37.3780                28.1839

                    70                     71                     72
                     A                      A                      A
 Frequencies --  1669.3085              1672.5777              1678.0402
 Red. masses --     1.0577                 1.0566                 1.0570
 Frc consts  --     1.7365                 1.7415                 1.7536
 IR Inten    --    35.5943                44.9640                42.6143

                    73                     74                     75
                     A                      A                      A
 Frequencies --  1680.8911              1682.8779              1689.0971
 Red. masses --     1.0569                 1.0561                 1.0558
 Frc consts  --     1.7593                 1.7622                 1.7748
 IR Inten    --    72.2562                24.2358                69.6570

                    76                     77                     78
                     A                      A                      A
 Frequencies --  2231.7586              2233.6825              2238.4194
 Red. masses --    12.8025                12.8073                12.8063
 Frc consts  --    37.5698                37.6489                37.8057
 IR Inten    --    62.4946                70.5103                70.3192

                    79                     80                     81
                     A                      A                      A
 Frequencies --  2239.3176              2246.6205              2253.6796
 Red. masses --    12.8064                12.8041                12.8009
 Frc consts  --    37.8364                38.0767                38.3066
 IR Inten    --    73.1790                53.3158               157.8260

                    82                     83                     84
                     A                      A                      A
 Frequencies --  3440.4471              3448.4816              3481.4763
 Red. masses --     1.0389                 1.0367                 1.0297
 Frc consts  --     7.2454                 7.2634                 7.3534
 IR Inten    --    99.1216                94.9858                 1.4975

                    85                     86                     87
                     A                      A                      A
 Frequencies --  3484.4253              3487.5561              3542.0630
 Red. masses --     1.0299                 1.0300                 1.0813
 Frc consts  --     7.3674                 7.3816                 7.9933
 IR Inten    --     0.1287                 3.1659                55.9539

                    88                     89                     90
                     A                      A                      A
 Frequencies --  3545.2370              3574.4262              3576.7316
 Red. masses --     1.0834                 1.0897                 1.0893
 Frc consts  --     8.0232                 8.2026                 8.2106
 IR Inten    --   111.6567                 2.0727                28.7689

                    91                     92                     93
                     A                      A                      A
 Frequencies --  3577.9931              3580.0870              3582.9971
 Red. masses --     1.0894                 1.0894                 1.0898
 Frc consts  --     8.2174                 8.2268                 8.2432
 IR Inten    --    34.2203                12.5655                45.4415

                    94                     95                     96
                     A                      A                      A
 Frequencies --  3584.0946              3585.0656              3586.8186
 Red. masses --     1.0896                 1.0895                 1.0900
 Frc consts  --     8.2467                 8.2505                 8.2624
 IR Inten    --    21.1623                36.6915                25.9744

 - Thermochemistry -
 -------------------
 Temperature   298.150 Kelvin.  Pressure   1.00000 Atm.
 Atom     1 has atomic number  6 and mass  12.00000

 Molecular mass:   398.98983 amu.
 Principal axes and moments of inertia in atomic units:
                           1         2         3
     Eigenvalues --  3653.01754********************
           X            1.00000  -0.00006   0.00012
           Y            0.00006   1.00000   0.00017
           Z           -0.00012  -0.00017   1.00000
 This molecule is an asymmetric top.
 Rotational symmetry number  1.
 Warning -- assumption of classical behavior for rotation
           may cause significant error
 Rotational temperatures (Kelvin)      0.02371     0.00704     0.00692
 Rotational constants (GHZ):           0.49404     0.14659     0.14418
 Zero-point vibrational energy     660579.2 (Joules/Mol)
                                  157.88222 (Kcal/Mol)
 Warning -- explicit consideration of  51 degrees of freedom as
           vibrations may cause significant error
 Vibrational temperatures:     30.63    61.75    64.67   106.56   108.80
          (Kelvin)            118.90   120.97   126.81   134.59   135.84
                              141.15   141.32   155.02   163.42   185.17
                              225.02   234.24   256.75   260.81   276.47
                              282.71   286.78   320.62   329.12   353.64
                              374.40   414.45   468.66   501.47   515.88
                              517.27   519.16   536.04   539.60   568.39
                              581.59   585.53   588.09   603.04   605.43
                              614.28   620.49   644.49   652.23   652.66
                              675.72   690.80   745.71   790.05   847.11
                              888.12   939.93   942.91  1012.09  1023.10
                             1035.94  1069.26  1079.69  1093.41  1098.70
                             1862.45  1881.81  1894.97  1899.88  1932.90
                             2383.22  2392.54  2395.34  2396.31  2401.76
                             2406.46  2414.32  2418.42  2421.28  2430.23
                             3211.00  3213.77  3220.58  3221.87  3232.38
                             3242.54  4950.03  4961.59  5009.06  5013.30
                             5017.81  5096.23  5100.80  5142.80  5146.11
                             5147.93  5150.94  5155.13  5156.71  5158.10
                             5160.63

 Zero-point correction=                           0.251601 (Hartree/Particle)
 Thermal correction to Energy=                    0.280421
 Thermal correction to Enthalpy=                  0.281365
 Thermal correction to Gibbs Free Energy=         0.191816
 Sum of electronic and zero-point Energies=          -1058.058728
 Sum of electronic and thermal Energies=             -1058.029908
 Sum of electronic and thermal Enthalpies=           -1058.028964
 Sum of electronic and thermal Free Energies=        -1058.118513

                     E (Thermal)             CV                S
                      KCal/Mol        Cal/Mol-Kelvin    Cal/Mol-Kelvin
 Total                  175.967             99.032            188.472
 Electronic               0.000              0.000              1.377
 Translational            0.889              2.981             43.843
 Rotational               0.889              2.981             34.686
 Vibrational            174.189             93.071            108.566
 Vibration     1          0.593              1.985              6.510
 Vibration     2          0.595              1.980              5.120
 Vibration     3          0.595              1.979              5.028
 Vibration     4          0.599              1.966              4.042
 Vibration     5          0.599              1.965              4.001
 Vibration     6          0.600              1.961              3.827
 Vibration     7          0.601              1.960              3.793
 Vibration     8          0.601              1.958              3.701
 Vibration     9          0.603              1.954              3.585
 Vibration    10          0.603              1.953              3.567
 Vibration    11          0.604              1.951              3.492
 Vibration    12          0.604              1.950              3.489
 Vibration    13          0.606              1.943              3.309
 Vibration    14          0.607              1.938              3.207
 Vibration    15          0.611              1.925              2.965
 Vibration    16          0.620              1.896              2.593
 Vibration    17          0.623              1.888              2.517
 Vibration    18          0.629              1.869              2.345
 Vibration    19          0.630              1.865              2.315
 Vibration    20          0.634              1.851              2.207
 Vibration    21          0.636              1.845              2.166
 Vibration    22          0.637              1.841              2.139
 Vibration    23          0.649              1.806              1.936
 Vibration    24          0.651              1.797              1.889
 Vibration    25          0.660              1.770              1.761
 Vibration    26          0.668              1.745              1.660
 Vibration    27          0.685              1.696              1.485
 Vibration    28          0.710              1.624              1.281
 Vibration    29          0.726              1.578              1.173
 Vibration    30          0.733              1.558              1.128
 Vibration    31          0.734              1.556              1.124
 Vibration    32          0.735              1.553              1.119
 Vibration    33          0.744              1.528              1.069
 Vibration    34          0.746              1.523              1.059
 Vibration    35          0.762              1.481              0.981
 Vibration    36          0.769              1.461              0.947
 Vibration    37          0.772              1.455              0.937
 Vibration    38          0.773              1.451              0.931
 Vibration    39          0.782              1.429              0.895
 Vibration    40          0.783              1.425              0.889
 Vibration    41          0.789              1.412              0.869
 Vibration    42          0.792              1.402              0.855
 Vibration    43          0.807              1.365              0.802
 Vibration    44          0.812              1.354              0.786
 Vibration    45          0.812              1.353              0.785
 Vibration    46          0.827              1.317              0.739
 Vibration    47          0.836              1.294              0.710
 Vibration    48          0.873              1.209              0.614
 Vibration    49          0.904              1.142              0.546
 Vibration    50          0.946              1.056              0.469
 Vibration    51          0.977              0.995              0.421

 Optimization completed.
    -- Stationary point found.
 Normal termination of Gaussian 09 at Sat May  1 03:48:25 2010.
