 Gaussian 09, Revision A.02,
 Gaussian 09:  EM64L-G09RevA.02 11-Jun-2009

 ----------------------------------------------------------------------
 #p freq upbe1pbe/gen scrf=(solvent=water,pcm) scf=(qc,conver=7) caches
 ize=131072 int(grid=ultrafine) pseudo=read
 ----------------------------------------------------------------------

 -------------------
 Title Card Required
 -------------------
 Symbolic Z-matrix:
 Charge = -1 Multiplicity = 2

                         Standard orientation:
 ---------------------------------------------------------------------
 Center     Atomic      Atomic             Coordinates (Angstroms)
 Number     Number       Type             X           Y           Z
 ---------------------------------------------------------------------
      1          6           0        0.590186    0.033404   -0.028310
      2          7           0        2.645048   -2.300711   -2.071582
      3          7           0       -0.572126    0.040445   -0.039591
      4          7           0        2.732443    2.171205   -2.208289
      5         44           0       -2.570876    0.005010   -0.019062
      6          1           0       -5.140249    0.400038   -0.808017
      7         26           0        2.530161    0.004402    0.011388
      8          1           0       -5.108447   -0.984093    0.031449
      9          7           0       -4.726341   -0.042863    0.007696
     10          1           0       -5.125113    0.436608    0.809891
     11          7           0       -2.599814    2.144655   -0.033197
     12          1           0       -1.648132    2.496333   -0.091772
     13          7           0       -2.477763   -2.133019   -0.006358
     14          1           0       -2.917589   -2.580957   -0.805567
     15          7           0       -2.586497   -0.024524   -2.158881
     16          1           0       -2.905354    0.836718   -2.594141
     17          7           0       -2.517810    0.010979    2.121139
     18          1           0       -2.790385    0.891834    2.548373
     19          6           0        4.472272   -0.029767    0.059145
     20          1           0       -3.102318    2.555646   -0.814948
     21          6           0        2.405033   -1.354083    1.401359
     22          1           0       -3.005478    2.566051    0.798021
     23          6           0        2.456729    1.446591    1.318275
     24          1           0       -1.503170   -2.420963   -0.022289
     25          6           0        2.659165    1.363769   -1.376127
     26          1           0       -2.887469   -2.570507    0.814127
     27          6           0        2.607086   -1.439804   -1.292309
     28          1           0       -1.644834   -0.180258   -2.507502
     29          7           0        5.633177   -0.050424    0.095252
     30          1           0       -3.163494   -0.760860   -2.555968
     31          7           0        2.406953    2.306621    2.097852
     32          1           0       -3.103999   -0.695614    2.556820
     33          7           0        2.320842   -2.161779    2.232268
     34          1           0       -1.569242   -0.169655    2.437790
 ---------------------------------------------------------------------

 SCF Done:  E(UPBE1PBE) =  -1058.31276066     a.u. after   92 cycles

 The electronic state is 2-A.
 Alpha  occ. eigenvalues --  -14.41464 -14.41443 -14.41437 -14.41415 -14.41399
 Alpha  occ. eigenvalues --  -14.37561 -14.33519 -14.33516 -14.33507 -14.33496
 Alpha  occ. eigenvalues --  -14.33474 -10.23057 -10.21142 -10.21135 -10.21125
 Alpha  occ. eigenvalues --  -10.21114 -10.21110  -3.68714  -3.00723  -2.33135
 Alpha  occ. eigenvalues --   -2.28774  -2.28611  -1.84022  -1.83722  -1.83607
 Alpha  occ. eigenvalues --   -0.93320  -0.92150  -0.92139  -0.92095  -0.92005
 Alpha  occ. eigenvalues --   -0.91758  -0.89139  -0.88861  -0.88821  -0.88725
 Alpha  occ. eigenvalues --   -0.88700  -0.53673  -0.53569  -0.52953  -0.52912
 Alpha  occ. eigenvalues --   -0.52150  -0.51488  -0.51421  -0.51058  -0.50627
 Alpha  occ. eigenvalues --   -0.50599  -0.49773  -0.48649  -0.43132  -0.43055
 Alpha  occ. eigenvalues --   -0.42995  -0.42657  -0.42075  -0.40335  -0.39951
 Alpha  occ. eigenvalues --   -0.39342  -0.37946  -0.37369  -0.36569  -0.35920
 Alpha  occ. eigenvalues --   -0.35681  -0.35058  -0.34737  -0.34706  -0.34524
 Alpha  occ. eigenvalues --   -0.34503  -0.33076  -0.33053  -0.31929  -0.31239
 Alpha  occ. eigenvalues --   -0.31183  -0.30739  -0.30672  -0.29593  -0.29464
 Alpha  occ. eigenvalues --   -0.28929  -0.27744  -0.27562  -0.19961  -0.19602
 Alpha  occ. eigenvalues --   -0.19489
 Alpha virt. eigenvalues --   -0.02066  -0.00325  -0.00040   0.00661   0.00825
 Alpha virt. eigenvalues --    0.00839   0.01889   0.03050   0.04395   0.04644
 Alpha virt. eigenvalues --    0.04964   0.05085   0.05218   0.05575   0.07012

  Beta  occ. eigenvalues --  -14.41465 -14.41444 -14.41437 -14.41416 -14.41399
  Beta  occ. eigenvalues --  -14.37511 -14.33477 -14.33473 -14.33464 -14.33453
  Beta  occ. eigenvalues --  -14.33427 -10.23158 -10.21235 -10.21228 -10.21219
  Beta  occ. eigenvalues --  -10.21207 -10.21207  -3.62632  -3.00649  -2.23909
  Beta  occ. eigenvalues --   -2.23861  -2.23184  -1.83911  -1.83609  -1.83582
  Beta  occ. eigenvalues --   -0.93314  -0.92149  -0.92139  -0.92096  -0.92005
  Beta  occ. eigenvalues --   -0.91704  -0.89100  -0.88821  -0.88779  -0.88678
  Beta  occ. eigenvalues --   -0.88656  -0.53666  -0.53568  -0.52946  -0.52912
  Beta  occ. eigenvalues --   -0.52142  -0.51488  -0.51421  -0.51058  -0.50626
  Beta  occ. eigenvalues --   -0.50597  -0.49774  -0.48648  -0.43334  -0.43036
  Beta  occ. eigenvalues --   -0.42555  -0.42534  -0.42065  -0.40325  -0.39815
  Beta  occ. eigenvalues --   -0.37631  -0.37296  -0.36522  -0.36020  -0.35529
  Beta  occ. eigenvalues --   -0.35003  -0.34953  -0.34705  -0.34547  -0.34210
  Beta  occ. eigenvalues --   -0.34013  -0.32986  -0.32668  -0.31838  -0.31123
  Beta  occ. eigenvalues --   -0.30955  -0.30569  -0.29700  -0.29552  -0.28855
  Beta  occ. eigenvalues --   -0.25494  -0.25286  -0.19925  -0.19446  -0.19413
  Beta virt. eigenvalues --   -0.08904  -0.02064   0.00542   0.00830   0.00849
  Beta virt. eigenvalues --    0.01747   0.02111   0.02196   0.03079   0.04789
  Beta virt. eigenvalues --    0.04875   0.05386   0.05596   0.05624   0.06996

 Mulliken atomic charges:
              1
     1  C    0.532865
     2  N   -0.251097
     3  N   -0.060114
     4  N   -0.251437
     5  Ru   0.246254
     6  H    0.271106
     7  Fe  -2.933651
     8  H    0.271705
     9  N   -0.489470
    10  H    0.271187
    11  N   -0.505268
    12  H    0.274564
    13  N   -0.506291
    14  H    0.266820
    15  N   -0.508707
    16  H    0.267334
    17  N   -0.508223
    18  H    0.266591
    19  C    0.183010
    20  H    0.266774
    21  C    0.184498
    22  H    0.265993
    23  C    0.182410
    24  H    0.277356
    25  C    0.181099
    26  H    0.267582
    27  C    0.182071
    28  H    0.276862
    29  N   -0.233083
    30  H    0.268616
    31  N   -0.251128
    32  H    0.269421
    33  N   -0.251497
    34  H    0.275848
 Sum of Mulliken atomic charges =  -1.00000

 Dipole moment (field-independent basis, Debye):
    X=            -63.2485    Y=             -0.1243    Z=             -0.4197  Tot=             63.2500
 Quadrupole moment (field-independent basis, Debye-Ang):
   XX=           -188.9141   YY=           -166.5040   ZZ=           -162.4786
   XY=             -0.3737   XZ=              2.7769   YZ=              0.1118

  Exact polarizability: 347.427   0.281 272.185  -2.844   0.041 267.125
 Approx polarizability: 336.282   0.393 284.822  -3.057   0.017 279.923

                     1                      2                      3
                     A                      A                      A
 Frequencies --    14.9787                25.6682                28.8864
 Red. masses --     4.2576                 4.6985                 3.3376
 Frc consts  --     0.0006                 0.0018                 0.0016
 IR Inten    --     0.1329                 1.5698                 1.3668

                     4                      5                      6
                     A                      A                      A
 Frequencies --    38.2714                62.9825                66.1799
 Red. masses --     1.2371                 5.1350                 4.7299
 Frc consts  --     0.0011                 0.0120                 0.0122
 IR Inten    --     1.3426                 3.6617                 5.0293

                     7                      8                      9
                     A                      A                      A
 Frequencies --    78.9358                84.8817                87.5415
 Red. masses --    11.8560                10.7768                10.5422
 Frc consts  --     0.0435                 0.0457                 0.0476
 IR Inten    --     0.9540                44.7584                15.6005

                    10                     11                     12
                     A                      A                      A
 Frequencies --    91.4059                94.8426                95.4360
 Red. masses --    13.1271                11.2708                 1.0573
 Frc consts  --     0.0646                 0.0597                 0.0057
 IR Inten    --     6.1636                 0.4502                 0.0412

                    13                     14                     15
                     A                      A                      A
 Frequencies --   105.6653               109.7587               120.7464
 Red. masses --    12.7134                10.8410                 1.0923
 Frc consts  --     0.0836                 0.0769                 0.0094
 IR Inten    --     8.5949                 6.7674                 1.6700

                    16                     17                     18
                     A                      A                      A
 Frequencies --   122.6992               129.5005               160.6272
 Red. masses --     1.1496                 1.0898                 8.6395
 Frc consts  --     0.0102                 0.0108                 0.1313
 IR Inten    --     1.5170                 0.6162                 2.8869

                    19                     20                     21
                     A                      A                      A
 Frequencies --   168.4590               179.6898               184.9612
 Red. masses --     2.9777                 2.8615                 2.6301
 Frc consts  --     0.0498                 0.0544                 0.0530
 IR Inten    --     2.4590                 0.3710                 6.7396

                    22                     23                     24
                     A                      A                      A
 Frequencies --   185.3398               209.4008               220.1392
 Red. masses --     2.7626                 3.6079                 3.5765
 Frc consts  --     0.0559                 0.0932                 0.1021
 IR Inten    --     0.8605                34.4003                26.3184

                    25                     26                     27
                     A                      A                      A
 Frequencies --   241.9286               256.0160               263.0866
 Red. masses --     3.9706                 6.6584                 7.3835
 Frc consts  --     0.1369                 0.2571                 0.3011
 IR Inten    --   109.1864                 7.4469                 6.8360

                    28                     29                     30
                     A                      A                      A
 Frequencies --   322.6395               346.0563               354.7865
 Red. masses --    12.4068                11.7436                11.9155
 Frc consts  --     0.7609                 0.8286                 0.8837
 IR Inten    --     0.1378                13.0050                 8.8674

                    31                     32                     33
                     A                      A                      A
 Frequencies --   358.1528               362.1117               373.3342
 Red. masses --    13.0336                12.1922                12.6583
 Frc consts  --     0.9850                 0.9419                 1.0395
 IR Inten    --     0.1090                15.8252                32.8828

                    34                     35                     36
                     A                      A                      A
 Frequencies --   376.0053               396.6327               403.9744
 Red. masses --    13.2051                12.0749                 4.5887
 Frc consts  --     1.1000                 1.1192                 0.4412
 IR Inten    --    58.7589                59.2796                 1.3424

                    37                     38                     39
                     A                      A                      A
 Frequencies --   409.7968               410.5823               421.5974
 Red. masses --     5.3372                 5.1766                 5.9869
 Frc consts  --     0.5281                 0.5142                 0.6270
 IR Inten    --     6.6781                 3.9479                11.9270

                    40                     41                     42
                     A                      A                      A
 Frequencies --   422.6578               425.5393               433.2409
 Red. masses --     6.5965                 9.9762                 4.6062
 Frc consts  --     0.6943                 1.0644                 0.5094
 IR Inten    --    14.0356                10.6237                 0.0836

                    43                     44                     45
                     A                      A                      A
 Frequencies --   445.7951               456.1119               462.7624
 Red. masses --    12.2312                12.0603                13.5802
 Frc consts  --     1.4321                 1.4783                 1.7135
 IR Inten    --     1.4352                 0.5884                 4.8299

                    46                     47                     48
                     A                      A                      A
 Frequencies --   482.6879               488.6093               509.8013
 Red. masses --     9.8974                 9.6785                13.9748
 Frc consts  --     1.3586                 1.3614                 2.1399
 IR Inten    --     0.6730                 1.8993                 0.2453

                    49                     50                     51
                     A                      A                      A
 Frequencies --   552.7889               564.1402               616.1616
 Red. masses --    16.0419                17.0085                 1.1203
 Frc consts  --     2.8882                 3.1893                 0.2506
 IR Inten    --     0.2587                 0.5881                 0.2326

                    52                     53                     54
                     A                      A                      A
 Frequencies --   647.5285               650.0688               700.6303
 Red. masses --     1.2218                 1.2186                 1.1890
 Frc consts  --     0.3018                 0.3034                 0.3439
 IR Inten    --     2.9561                 3.2111                 0.6646

                    55                     56                     57
                     A                      A                      A
 Frequencies --   702.9879               711.1428               724.2106
 Red. masses --     1.1763                 1.1817                 1.1773
 Frc consts  --     0.3425                 0.3521                 0.3638
 IR Inten    --     0.5631                 2.7651                27.8213

                    58                     59                     60
                     A                      A                      A
 Frequencies --   743.8995               752.1585               764.4090
 Red. masses --     1.2790                 1.2344                 1.2021
 Frc consts  --     0.4170                 0.4115                 0.4138
 IR Inten    --   141.1607               116.7752                97.9633

                    61                     62                     63
                     A                      A                      A
 Frequencies --  1292.7416              1302.9472              1307.2387
 Red. masses --     1.1687                 1.1663                 1.1671
 Frc consts  --     1.1507                 1.1666                 1.1750
 IR Inten    --     5.1916               110.6197               232.0341

                    64                     65                     66
                     A                      A                      A
 Frequencies --  1312.6970              1340.2669              1655.6769
 Red. masses --     1.1643                 1.1487                 1.0566
 Frc consts  --     1.1821                 1.2157                 1.7064
 IR Inten    --   221.1496                35.1093                43.4264

                    67                     68                     69
                     A                      A                      A
 Frequencies --  1662.4514              1664.1879              1664.9359
 Red. masses --     1.0595                 1.0583                 1.0588
 Frc consts  --     1.7252                 1.7269                 1.7292
 IR Inten    --     1.9012                10.5300                 9.4308

                    70                     71                     72
                     A                      A                      A
 Frequencies --  1667.6918              1671.4057              1675.2649
 Red. masses --     1.0581                 1.0561                 1.0571
 Frc consts  --     1.7339                 1.7383                 1.7480
 IR Inten    --    32.0607                42.5492                47.9482

                    73                     74                     75
                     A                      A                      A
 Frequencies --  1676.0643              1681.8212              1683.4049
 Red. masses --     1.0561                 1.0558                 1.0563
 Frc consts  --     1.7479                 1.7596                 1.7636
 IR Inten    --    56.3341               117.7918                30.4621

                    76                     77                     78
                     A                      A                      A
 Frequencies --  2231.7971              2237.0910              2237.2589
 Red. masses --    12.8100                12.8089                12.8044
 Frc consts  --    37.5933                37.7684                37.7610
 IR Inten    --    21.2360                96.2273                38.9112

                    79                     80                     81
                     A                      A                      A
 Frequencies --  2237.5365              2238.8752              2247.3282
 Red. masses --    12.8109                12.8008                12.8036
 Frc consts  --    37.7894                37.8050                38.0992
 IR Inten    --   138.2613                39.7172                64.4803

                    82                     83                     84
                     A                      A                      A
 Frequencies --  3480.3707              3480.4557              3481.2367
 Red. masses --     1.0297                 1.0297                 1.0296
 Frc consts  --     7.3486                 7.3491                 7.3519
 IR Inten    --     1.9893                 3.2696                 0.2768

                    85                     86                     87
                     A                      A                      A
 Frequencies --  3482.7688              3485.5481              3574.3973
 Red. masses --     1.0301                 1.0302                 1.0897
 Frc consts  --     7.3614                 7.3741                 8.2025
 IR Inten    --     0.1861                 1.9116                 1.5688

                    88                     89                     90
                     A                      A                      A
 Frequencies --  3577.0742              3578.6899              3579.6192
 Red. masses --     1.0896                 1.0896                 1.0900
 Frc consts  --     8.2142                 8.2215                 8.2293
 IR Inten    --    37.4164                29.7964                20.2430

                    91                     92                     93
                     A                      A                      A
 Frequencies --  3580.0367              3581.0264              3581.4049
 Red. masses --     1.0897                 1.0898                 1.0902
 Frc consts  --     8.2290                 8.2343                 8.2386
 IR Inten    --    19.2728                 3.9241                 9.7964

                    94                     95                     96
                     A                      A                      A
 Frequencies --  3581.7090              3583.0578              3583.6768
 Red. masses --     1.0901                 1.0900                 1.0898
 Frc consts  --     8.2397                 8.2451                 8.2461
 IR Inten    --   103.5851                47.0170                21.8524

 - Thermochemistry -
 -------------------
 Temperature   298.150 Kelvin.  Pressure   1.00000 Atm.
 Atom     1 has atomic number  6 and mass  12.00000

 Molecular mass:   398.98983 amu.
 Principal axes and moments of inertia in atomic units:
                           1         2         3
     Eigenvalues --  3798.41182********************
           X            1.00000  -0.00003   0.00008
           Y            0.00003   1.00000   0.00306
           Z           -0.00008  -0.00306   1.00000
 This molecule is an asymmetric top.
 Rotational symmetry number  1.
 Warning -- assumption of classical behavior for rotation
           may cause significant error
 Rotational temperatures (Kelvin)      0.02280     0.00647     0.00643
 Rotational constants (GHZ):           0.47513     0.13488     0.13391
 Zero-point vibrational energy     658668.6 (Joules/Mol)
                                  157.42557 (Kcal/Mol)
 Warning -- explicit consideration of  51 degrees of freedom as
           vibrations may cause significant error
 Vibrational temperatures:     21.55    36.93    41.56    55.06    90.62
          (Kelvin)             95.22   113.57   122.13   125.95   131.51
                              136.46   137.31   152.03   157.92   173.73
                              176.54   186.32   231.11   242.37   258.53
                              266.12   266.66   301.28   316.73   348.08
                              368.35   378.52   464.21   497.90   510.46
                              515.30   521.00   537.14   540.99   570.67
                              581.23   589.61   590.74   606.58   608.11
                              612.26   623.34   641.40   656.24   665.81
                              694.48   703.00   733.49   795.34   811.67
                              886.52   931.65   935.30  1008.05  1011.44
                             1023.17  1041.98  1070.30  1082.19  1099.81
                             1859.96  1874.65  1880.82  1888.68  1928.34
                             2382.15  2391.89  2394.39  2395.47  2399.43
                             2404.78  2410.33  2411.48  2419.76  2422.04
                             3211.05  3218.67  3218.91  3219.31  3221.24
                             3233.40  5007.47  5007.59  5008.72  5010.92
                             5014.92  5142.75  5146.61  5148.93  5150.27
                             5150.87  5152.29  5152.84  5153.27  5155.21
                             5156.11

 Zero-point correction=                           0.250874 (Hartree/Particle)
 Thermal correction to Energy=                    0.280308
 Thermal correction to Enthalpy=                  0.281253
 Thermal correction to Gibbs Free Energy=         0.188055
 Sum of electronic and zero-point Energies=          -1058.061887
 Sum of electronic and thermal Energies=             -1058.032452
 Sum of electronic and thermal Enthalpies=           -1058.031508
 Sum of electronic and thermal Free Energies=        -1058.124706

                     E (Thermal)             CV                S
                      KCal/Mol        Cal/Mol-Kelvin    Cal/Mol-Kelvin
 Total                  175.896             99.476            196.151
 Electronic               0.000              0.000              1.377
 Translational            0.889              2.981             43.843
 Rotational               0.889              2.981             34.881
 Vibrational            174.119             93.514            116.050
 Vibration     1          0.593              1.986              7.208
 Vibration     2          0.593              1.985              6.139
 Vibration     3          0.593              1.984              5.904
 Vibration     4          0.594              1.982              5.347
 Vibration     5          0.597              1.972              4.361
 Vibration     6          0.598              1.970              4.264
 Vibration     7          0.600              1.963              3.917
 Vibration     8          0.601              1.960              3.775
 Vibration     9          0.601              1.958              3.714
 Vibration    10          0.602              1.955              3.630
 Vibration    11          0.603              1.953              3.558
 Vibration    12          0.603              1.952              3.545
 Vibration    13          0.605              1.945              3.347
 Vibration    14          0.606              1.941              3.273
 Vibration    15          0.609              1.932              3.088
 Vibration    16          0.610              1.930              3.057
 Vibration    17          0.612              1.924              2.953
 Vibration    18          0.622              1.891              2.542
 Vibration    19          0.625              1.881              2.453
 Vibration    20          0.629              1.867              2.332
 Vibration    21          0.631              1.860              2.278
 Vibration    22          0.631              1.860              2.274
 Vibration    23          0.642              1.826              2.049
 Vibration    24          0.647              1.810              1.958
 Vibration    25          0.658              1.776              1.789
 Vibration    26          0.666              1.753              1.689
 Vibration    27          0.670              1.740              1.641
 Vibration    28          0.708              1.630              1.297
 Vibration    29          0.724              1.583              1.184
 Vibration    30          0.731              1.565              1.145
 Vibration    31          0.733              1.558              1.130
 Vibration    32          0.736              1.550              1.113
 Vibration    33          0.745              1.527              1.066
 Vibration    34          0.747              1.521              1.055
 Vibration    35          0.763              1.477              0.975
 Vibration    36          0.769              1.462              0.948
 Vibration    37          0.774              1.449              0.927
 Vibration    38          0.775              1.447              0.925
 Vibration    39          0.784              1.423              0.887
 Vibration    40          0.785              1.421              0.883
 Vibration    41          0.787              1.415              0.873
 Vibration    42          0.794              1.398              0.848
 Vibration    43          0.805              1.370              0.809
 Vibration    44          0.814              1.347              0.778
 Vibration    45          0.820              1.333              0.758
 Vibration    46          0.839              1.288              0.703
 Vibration    47          0.845              1.275              0.687
 Vibration    48          0.865              1.228              0.634
 Vibration    49          0.908              1.134              0.538
 Vibration    50          0.920              1.109              0.516
 Vibration    51          0.976              0.998              0.423

 Normal termination of Gaussian 09 at Wed May 12 23:56:09 2010.
